ITEM: TIMESTEP
100000
ITEM: NUMBER OF ATOMS
216
ITEM: BOX BOUNDS pp pp pp
-5.6735898889999996e+00 1.1347179777999999e+01
-5.6735898889999996e+00 1.1347179777999999e+01
-5.6735898889999996e+00 1.1347179777999999e+01
ITEM: ATOMS id type x y z vx vy vz
1 1 -4.5788 -4.96368 -4.78085 -7.14794 -3.63764 15.2278
2 1 -1.7842 -2.13073 -4.68362 4.26487 2.24712 -8.45335
4 1 -0.503975 -3.91539 -3.43852 8.9183 -5.25211 -5.96377
6 1 -3.19959 -0.661068 -3.46005 2.57066 -2.91191 4.14471
25 1 -5.16366 0.395908 -4.91243 9.18086 1.39572 5.11684
28 1 -0.472899 2.14666 -3.97351 13.3912 4.79733 1.03855
73 1 0.947338 -5.32098 -5.01504 -3.33157 -17.4351 -3.70811
74 1 3.49951 -2.21063 -4.8077 -7.15087 -2.42523 -3.52749
76 1 5.01745 -3.58436 -3.2719 -1.65586 3.4389 -4.74236
78 1 2.25326 -0.546908 -3.71455 -5.6098 8.47066 7.94762
97 1 0.825885 0.542389 -5.65379 -1.79462 2.24085 2.17648
100 1 4.82917 2.18576 -3.41781 4.98967 3.82161 4.89665
145 1 6.28238 -4.96868 -5.07438 -2.24223 3.26238 -8.41017
146 1 9.19729 -2.19966 -4.66959 7.14014 -9.38876 -5.74524
148 1 10.6983 -3.57126 -3.44901 6.41049 8.46659 2.85017
150 1 7.72214 -0.611194 -3.53178 -7.41698 -5.49725 3.55055
169 1 6.14357 0.590934 -5.07131 2.1092 -2.17931 2.94558
172 1 10.0944 1.90292 -3.81893 -8.11928 1.91004 -4.71418
3 1 -2.00262 -4.93807 -1.86963 -3.80074 -12.5822 2.60898
5 1 -4.90856 -1.94466 -1.99219 2.99955 -6.84271 17.2052
7 1 -3.50681 -3.40059 -0.628537 6.28867 1.94672 1.12378
8 1 -0.686898 -0.825148 -1.04534 0.0445314 9.79491 -3.5141
9 1 -4.73359 -4.94781 0.792027 6.07473 -8.8397 -9.00104
10 1 -2.09524 -2.23156 0.665242 -3.57012 6.38217 -8.87279
27 1 -2.06645 0.891582 -2.18397 0.174482 3.02793 1.25464
31 1 -3.4156 2.14869 -0.831103 -2.52503 4.55773 -1.7175
33 1 -4.97338 0.352902 0.450159 -8.2889 3.71392 8.2414
75 1 3.64257 -4.89712 -1.90206 -8.05844 -1.10461 3.5912
77 1 0.866438 -2.2142 -2.32627 6.81121 6.53852 0.0825148
79 1 2.05573 -3.52897 -0.623156 1.56394 -4.07111 -7.1729
80 1 5.06241 -0.664061 -0.834898 3.12031 -7.74191 -1.44928
81 1 0.763534 -5.09583 0.83089 -10.2033 8.19319 -3.24078
82 1 3.44552 -1.94662 0.454649 -6.52188 0.113151 -2.53854
99 1 3.50298 0.762246 -2.18644 12.6652 -5.8489 7.39533
103 1 2.04531 2.39565 -0.634929 -1.92973 -0.630534 -12.0629
105 1 0.702152 0.647962 0.561602 -4.41539 1.37622 -12.2176
147 1 9.09497 -4.63093 -1.99748 -1.04007 -4.35833 -6.31672
149 1 6.64858 -2.17052 -2.02703 3.05864 -6.35242 -3.44173
151 1 7.57497 -3.50049 -0.383339 3.49858 -6.43065 -1.03848
152 1 10.2561 -0.786799 -0.741204 -8.85223 -8.13871 6.10731
153 1 6.06899 -4.92833 1.29104 -7.54802 -6.73685 -1.03566
154 1 9.02434 -2.26326 0.968694 -5.7679 -1.23367 -9.92725
171 1 8.88556 0.813859 -1.91367 6.40213 7.88116 -1.09522
175 1 7.35175 2.24058 -0.500805 2.60247 -9.63951 -2.89101
177 1 6.17736 0.772141 1.06058 3.08493 8.37665 1.47305
11 1 -1.87498 -5.03325 3.78951 2.73789 13.5873 8.63356
12 1 -0.570508 -3.61293 2.43132 3.38347 7.83132 7.89851
13 1 -5.06713 -2.00103 3.70111 2.85738 3.02576 5.35963
14 1 -3.72294 -0.930013 1.94309 -0.485833 6.8137 -4.48574
35 1 -2.23928 0.433708 3.38841 -7.91684 -3.3406 -12.5503
36 1 -0.714367 1.98207 2.32686 0.433351 3.191 -4.24993
83 1 3.46295 -4.94141 3.4181 -3.53847 -0.631395 1.2437
84 1 4.77752 -3.15557 2.26341 2.80551 -12.4729 0.796048
85 1 0.693038 -1.93822 3.88889 3.75671 3.50542 -6.4592
86 1 1.9813 -0.691952 2.32466 1.38178 -9.3617 -0.544423
107 1 3.71697 1.07189 3.63408 -10.8089 -3.63062 -2.20242
108 1 4.65516 2.30434 2.0168 -7.09366 10.5381 -1.62072
155 1 9.26919 -5.29857 3.53389 -4.8065 -4.28094 9.49926
156 1 10.7508 -3.69097 2.33267 -1.75905 3.64882 14.2532
157 1 6.41484 -2.10327 3.66936 17.1866 -8.06325 -2.81063
158 1 7.65656 -0.618335 2.24597 -4.28323 -2.80222 -6.07443
179 1 9.11864 0.866865 3.63995 7.62424 4.29556 -9.38065
180 1 10.5289 1.91046 1.83424 4.35352 -4.50984 -0.208801
15 1 -3.35556 -3.23143 5.02403 0.333402 9.23374 5.92557
16 1 -0.704849 -0.41209 5.18211 6.4826 2.15876 -0.975212
17 1 -4.68333 -4.87573 6.24516 2.88433 5.21056 -7.49827
18 1 -2.02808 -2.1088 6.57588 4.9698 -2.40117 0.124556
20 1 -0.436062 -3.65301 7.86811 -0.680455 -1.5752 2.64802
22 1 -3.3083 -0.650977 7.87967 2.41918 7.37058 4.79109
39 1 -3.67575 2.2 4.69684 10.396 -2.03317 4.36182
41 1 -4.92633 0.366442 6.29851 11.4059 -11.0935 4.40515
44 1 -0.610283 2.46912 7.79414 -1.68154 7.79377 0.784045
87 1 2.08842 -3.76899 5.254 -16.1529 3.87813 10.7726
88 1 4.85973 -0.453528 5.14017 -7.44481 8.86277 4.59169
89 1 0.743851 -5.47162 6.60701 0.421727 13.6397 6.62151
90 1 3.48413 -1.8926 6.44684 -12.1237 7.81659 -2.11953
92 1 4.76851 -3.1702 7.98239 15.2019 13.0178 -7.55913
94 1 2.09947 -0.352674 7.78102 5.14752 3.54122 7.716
111 1 2.04628 2.45612 4.81334 -8.26211 -2.19021 1.09794
113 1 0.836646 1.19089 6.4056 11.9406 -1.58158 3.31462
116 1 5.18975 2.18506 7.59164 -4.28339 -7.47573 -1.18902
159 1 7.79114 -3.88918 5.04712 -1.20967 7.71014 1.45993
160 1 10.3525 -0.823107 4.95892 -1.11069 5.87425 -3.75856
161 1 6.09972 -4.78951 6.48601 -3.05694 -3.7877 -0.950088
162 1 9.25615 -2.43287 6.12039 11.6505 -3.79402 2.19617
164 1 10.6697 -3.56657 7.73055 10.0796 5.5217 9.4742
166 1 8.06532 -0.999808 7.67578 -5.87123 -3.29097 -8.93424
183 1 7.53378 2.5027 4.68374 -4.28247 -4.98408 -11.7339
185 1 6.49944 0.694015 6.15395 -2.23301 0.584247 8.86157
188 1 10.6268 1.84265 7.4543 -10.373 8.92396 -0.120758
19 1 -1.79795 -5.11831 9.21274 2.14046 0.535553 1.85616
21 1 -4.83277 -2.16587 9.19612 9.929 -5.59591 -8.16944
23 1 -3.12092 -3.42493 10.7237 -2.08638 -9.02641 -8.11012
24 1 -0.890075 -1.02856 10.3755 -5.80089 -3.83913 2.79097
43 1 -2.05697 0.841613 9.32991 2.90708 5.58537 -5.84113
47 1 -3.95918 1.86865 10.4624 2.87632 -2.83002 -6.10789
91 1 3.70271 -5.00027 9.20837 14.981 -1.03341 -0.309555
93 1 1.02329 -2.06484 9.19189 8.13834 4.46283 0.348684
95 1 2.20469 -3.66254 10.8328 -6.05465 -12.8746 1.6909
96 1 4.81528 -1.21393 10.593 -5.69149 -0.0443187 -4.9983
115 1 3.98136 0.534792 8.98514 -3.50217 9.07072 -0.872911
119 1 2.65929 2.07697 10.4143 -3.36185 8.57183 -7.86461
163 1 9.47992 -5.16082 9.32457 2.45079 -7.44457 -4.31794
165 1 6.76117 -2.296 9.40881 8.69686 6.44546 -0.914619
167 1 8.10847 -3.79593 10.8776 -7.48772 5.55735 -0.976713
168 1 10.5923 -1.00662 10.5246 -7.3743 1.49375 -2.6236
187 1 9.16962 0.596592 9.11911 1.8846 2.23332 2.01445
191 1 7.58967 1.85537 10.4744 8.69902 11.3091 -4.12739
26 1 -2.43519 3.27533 -4.86041 9.2619 -7.39491 -11.4729
30 1 -3.3647 4.80919 -3.54412 -0.190202 -3.41133 -3.8478
49 1 -5.05135 6.32936 -4.97479 3.62908 -8.58327 4.95819
50 1 -2.15525 8.91675 -4.59699 -1.19455 10.1287 -12.647
52 1 -0.443623 7.62499 -3.34514 -14.7785 -11.8725 -2.04743
54 1 -3.30178 10.7263 -3.38247 1.36522 6.12928 -12.3879
98 1 3.67878 3.67593 -4.79118 0.648429 -7.01775 5.75975
102 1 2.05547 4.87366 -3.44571 -5.76065 -11.4324 -3.62552
121 1 0.611858 6.15558 -5.27354 -2.60531 0.642737 3.18226
122 1 3.59392 9.57997 -5.1083 -8.84876 4.25169 4.2283
124 1 5.05992 8.04553 -3.82084 -0.729265 -12.8193 11.2152
126 1 2.41193 10.5057 -3.33928 -3.66548 9.25792 -2.60775
170 1 8.94807 3.45253 -5.10055 1.15116 -2.71126 -8.94458
174 1 7.71892 4.8753 -3.62932 -16.0875 -0.060813 4.80935
193 1 6.64962 6.47826 -5.29676 -1.28452 -6.39242 -1.73695
194 1 9.32681 9.4332 -4.93754 -2.96857 -14.3861 0.811275
196 1 10.7065 7.83037 -3.64629 -3.63041 1.42355 -1.53972
198 1 7.82985 10.6881 -3.46489 4.38343 6.57257 4.49932
29 1 -5.50339 3.15743 -2.13749 5.4658 -4.59663 7.19844
32 1 -0.701514 4.63329 -0.642611 -5.81449 11.7969 -6.91333
34 1 -2.28487 3.44894 1.02424 0.608704 1.83438 -1.28124
51 1 -1.96211 6.18639 -2.0005 -0.263863 2.17194 2.60107
53 1 -5.06993 9.46084 -1.91035 -5.33461 6.8593 0.127113
55 1 -3.74817 7.61414 -0.678574 2.64007 -2.54001 5.21589
56 1 -0.50442 10.5624 -0.56065 8.8981 7.40191 -1.90565
57 1 -5.39441 6.25535 0.691998 -6.1395 7.31345 2.83636
58 1 -2.02699 9.05877 0.640634 -1.87633 -7.76705 8.17468
101 1 0.683163 3.51005 -2.21338 1.8003 -4.27031 -10.7484
104 1 4.71127 5.25824 -0.555618 -1.70736 -2.94074 16.0047
106 1 3.45801 3.72194 0.796157 8.68003 -1.60111 -17.4998
123 1 3.51285 6.70964 -2.28691 -6.19482 -8.64628 -6.33122
125 1 0.808952 9.21172 -1.95787 3.28386 -4.28009 0.638527
127 1 1.99599 7.8361 -0.58294 -7.97568 -1.27796 3.25192
128 1 5.23537 11.009 -0.733073 1.96573 2.91269 -11.9932
129 1 0.46555 6.64602 0.754477 -4.6242 -8.05116 6.24846
130 1 3.72104 9.38465 0.690227 0.735038 -12.5404 -9.7779
173 1 6.12109 3.85445 -2.03533 -2.21838 -4.68299 -0.753434
176 1 10.4502 4.87519 -0.833104 4.62307 -1.43518 1.10996
178 1 9.06521 3.72129 0.506408 -11.9415 5.41501 -4.72811
195 1 9.22373 6.36432 -2.22881 -7.79431 -3.20287 -11.247
197 1 6.40096 9.30376 -2.2387 7.97389 -7.5841 3.03551
199 1 7.97547 8.06705 -1.07829 4.90899 4.02199 1.04879
200 1 10.6602 11.1103 -0.848238 -15.713 -7.46585 -4.59372
201 1 6.32392 7.02483 0.690939 -4.08101 -1.77791 11.9519
202 1 9.06205 9.64181 0.392055 -9.05962 6.54478 4.68587
37 1 -5.12741 3.4561 3.2367 -5.84644 -0.380237 9.79542
38 1 -3.87571 4.88973 1.84895 -6.49118 16.0752 -7.93077
59 1 -2.32114 6.329 3.35043 4.71808 0.15079 -9.30819
60 1 -0.765143 8.01968 2.34858 -13.3049 5.25877 -7.6282
61 1 -4.7705 9.16908 3.56753 6.7615 -2.86467 -7.83885
62 1 -3.45494 10.7665 2.49373 5.3329 6.80107 6.97465
109 1 0.725358 3.60662 3.29794 7.74416 3.59424 -0.433169
110 1 2.01916 5.34605 1.90572 0.477293 -4.27128 -4.79051
131 1 3.48436 6.4718 3.72473 -7.38471 -0.873584 7.26329
132 1 4.80413 8.15605 2.20414 9.58684 4.18903 9.9123
133 1 0.972155 9.00694 3.60944 10.3487 -8.76344 7.8704
134 1 2.3306 10.5362 2.03069 7.60951 -0.183787 -6.95034
181 1 6.44922 3.94038 3.18683 10.538 1.94071 -9.04506
182 1 7.69108 5.80496 2.05858 -3.26818 2.61908 4.63962
203 1 9.56997 6.83103 3.4619 -8.33289 -4.94154 6.97158
204 1 10.8011 8.22018 1.88059 13.0741 -0.0388115 0.161764
205 1 6.29525 9.4721 3.73475 -5.95865 11.5903 1.48052
206 1 7.71864 10.5876 2.04435 12.7536 1.86024 0.435415
40 1 -0.870889 4.68568 4.85571 6.33707 -5.732 -0.858118
42 1 -2.60914 3.3598 6.561 -3.59226 -5.22241 2.74645
46 1 -3.71869 4.94637 8.01021 -4.77217 -2.39726 1.0366
63 1 -3.73805 7.40109 5.00626 9.20083 -5.0031 -22.7781
64 1 -0.535055 10.4056 5.05178 1.84842 -5.11123 -7.14422
65 1 -5.16854 6.11424 6.33394 2.72436 1.16938 -1.25841
66 1 -2.39009 8.98618 6.39719 0.747802 -5.56009 11.9348
68 1 -0.529698 7.83509 8.06098 -1.87085 -3.93628 0.587043
70 1 -3.52117 10.606 7.73606 1.60715 1.27721 8.34137
112 1 4.81648 4.90857 5.12425 -11.3282 -11.8087 -0.665929
114 1 3.58145 3.55529 6.52442 2.93251 8.01804 -3.68235
118 1 2.2376 5.17395 7.77693 4.50826 -0.619645 -2.85653
135 1 2.11801 7.70331 5.17653 -11.9662 10.1802 -1.55994
136 1 4.72671 10.862 4.89808 -2.37703 5.45995 -3.08201
137 1 0.4042 6.2596 6.32628 5.28167 1.50827 -5.15512
138 1 3.49558 9.22363 6.2546 0.781205 -13.3922 -0.482513
140 1 5.00368 7.91991 7.48888 3.37057 5.59068 6.99983
142 1 2.23126 10.479 8.05414 -1.65773 -1.23017 7.31955
184 1 10.4801 4.86866 4.75177 -8.11302 -0.732109 2.49793
186 1 9.00414 3.60885 6.41678 -5.21598 7.47398 -6.45247
190 1 7.81397 4.90393 7.7856 2.56233 -1.45482 -1.79357
207 1 7.89331 7.91925 4.93577 1.02823 9.21863 7.93816
208 1 11.0052 10.5733 4.92839 3.94764 2.80623 5.31504
209 1 6.32576 6.37124 6.36875 5.03269 1.1022 12.799
210 1 9.13783 9.45888 6.22624 -4.98339 -6.15796 8.23227
212 1 10.2748 7.58352 7.50069 -6.73476 4.20284 3.61986
214 1 7.64886 10.7835 7.69131 0.952595 -8.19866 -14.5527
45 1 -5.27575 3.35197 8.99146 -2.39324 -11.4832 -1.52791
48 1 -0.930187 4.72066 10.5455 -2.81969 9.21388 0.144103
67 1 -2.31653 6.37853 9.21972 -10.0533 2.22455 12.8107
69 1 -4.8357 8.75748 8.69685 -3.30773 -8.98396 5.24048
71 1 -3.61347 7.73521 10.6878 12.1792 17.9547 -1.06121
72 1 -0.653211 10.1775 10.8637 -7.80173 -3.87853 5.92378
117 1 0.951906 3.5868 9.19696 11.244 2.79326 4.54676
120 1 5.0874 4.93663 10.7186 3.57075 -6.49927 14.141
139 1 3.63717 6.68078 9.15831 3.08351 9.00272 0.33098
141 1 0.934938 9.08637 9.46416 11.6276 -1.456 4.47808
143 1 2.27405 7.87262 10.876 -5.61753 -10.3693 6.12816
144 1 5.23428 10.5872 10.3979 3.25363 -4.05567 -1.47024
189 1 6.41164 3.65198 9.24356 -0.813016 12.0195 1.40794
192 1 10.5522 4.88187 10.6383 -0.479857 5.75807 1.8127
211 1 9.05902 6.12241 9.2192 10.3012 1.04373 4.28879
213 1 6.69738 9.02405 9.05694 -12.5654 10.4977 0.616229
215 1 8.16736 8.08868 10.5977 -3.44292 0.178031 11.3105
216 1 11.0453 10.1526 10.5977 3.77158 -10.6347 6.23957
