ITEM: TIMESTEP
200000
ITEM: NUMBER OF ATOMS
216
ITEM: BOX BOUNDS pp pp pp
-5.6735898889999996e+00 1.1347179777999999e+01
-5.6735898889999996e+00 1.1347179777999999e+01
-5.6735898889999996e+00 1.1347179777999999e+01
ITEM: ATOMS id type x y z vx vy vz
1 1 -5.02963 -5.08238 -5.22509 2.35428 -5.31967 2.23388
2 1 -2.21047 -2.00469 -4.9973 4.95201 0.280516 3.7103
4 1 -0.701781 -3.51066 -3.46119 2.98499 4.21896 2.90202
6 1 -3.57306 -0.691486 -3.34537 -0.249659 4.11726 -0.986923
25 1 -5.07033 0.877475 -5.08611 -11.0623 -3.07579 -7.40948
28 1 -0.74039 1.9291 -3.56183 0.305718 -8.73677 -2.8419
73 1 0.543877 -4.97006 -4.78846 1.79697 6.12553 5.95535
74 1 3.80159 -2.11956 -4.85747 -9.65024 0.0346115 0.788913
76 1 5.23047 -3.6675 -3.55653 -9.20898 4.18765 -0.35471
78 1 2.21255 -0.863135 -3.66766 -2.63173 -3.18795 7.52184
97 1 0.754332 0.583294 -4.95895 1.91395 6.89259 -0.151475
100 1 5.18394 1.94602 -3.64939 -5.52772 -4.89978 -13.1149
145 1 6.35499 -5.09696 -5.13569 -6.80882 4.02033 2.17878
146 1 9.16364 -2.09023 -5.14933 11.4114 -4.72082 -5.58319
148 1 10.8344 -3.65816 -3.50661 -9.71201 -2.18928 0.0645549
150 1 7.91687 -0.768197 -3.44296 -9.20814 13.038 -2.99454
169 1 6.64384 0.698597 -4.9104 8.02743 0.0857842 7.64358
172 1 10.526 2.1713 -3.83316 -1.47584 -1.63408 15.5647
3 1 -1.76845 -5.23392 -2.26811 9.76978 1.30703 -5.52185
5 1 -4.87062 -2.25724 -2.01521 -4.33557 17.4402 -3.79191
7 1 -3.11898 -3.63566 -0.90189 11.4675 -3.49928 2.81723
8 1 -0.749181 -0.745819 -0.491877 -8.53982 7.12752 6.8693
9 1 -4.9238 -5.12447 0.69636 -3.53986 1.07227 11.637
10 1 -2.15341 -2.28084 0.785146 -3.02017 -12.8786 -2.255
27 1 -2.07679 0.690248 -1.90397 9.65557 8.4514 3.98573
31 1 -3.32753 2.04289 -0.744718 -11.1617 8.99225 -10.2788
33 1 -4.92434 0.746424 0.400711 -8.07078 -0.335179 -6.72518
75 1 3.63389 -4.91882 -2.45242 2.26534 5.87298 -8.26279
77 1 0.658812 -2.04621 -2.22886 6.22008 -10.0142 10.2555
79 1 2.09827 -3.58194 -1.08103 -5.62851 11.7291 -8.21406
80 1 4.78454 -0.693624 -0.817334 -3.54841 2.66055 -5.16986
81 1 0.968932 -5.04705 0.537649 -4.72234 0.914808 3.60618
82 1 3.44451 -2.05546 0.619744 2.47291 3.50502 1.78581
99 1 3.62422 0.656012 -2.50818 4.61625 -5.71172 -6.92541
103 1 2.30583 1.85806 -0.764967 -4.66709 10.4035 14.4084
105 1 0.68087 0.672504 0.823433 -9.71196 -11.171 1.75569
147 1 9.31432 -5.03359 -2.04294 1.83853 -2.76118 5.20014
149 1 6.25617 -2.12957 -2.06329 0.582342 -16.3297 6.36359
151 1 7.69631 -3.51045 -0.73506 -8.87575 0.498495 -4.39063
152 1 10.6614 -0.808196 -0.732192 -2.73402 18.2478 -7.74874
153 1 6.50314 -4.95657 0.718149 8.99074 -4.842 -5.3108
154 1 9.11019 -2.15086 0.697979 14.8801 6.94335 -3.77977
171 1 9.39414 0.699135 -2.02336 6.32029 -0.923018 -3.86628
175 1 7.97235 2.15746 -0.661987 -0.845384 0.139135 -7.48911
177 1 6.45265 0.561925 0.755343 2.86275 2.71958 1.24789
11 1 -1.76183 -4.58548 3.40823 -11.5451 11.4305 9.33755
12 1 -0.252951 -3.07604 1.90008 5.49185 -5.25337 -7.56929
13 1 -4.84001 -2.3845 3.33811 -0.556806 -5.43286 -27.8065
14 1 -3.656 -0.72272 1.75883 4.92486 -1.62346 8.76748
35 1 -2.11121 0.594501 3.46233 5.20961 7.24868 5.36928
36 1 -0.37708 2.1025 2.4917 2.6916 5.44172 3.72012
83 1 3.5 -4.92633 3.35649 -8.79386 13.9708 -11.345
84 1 4.99309 -3.31358 2.17716 -8.27287 -12.9171 4.01482
85 1 1.14186 -1.9376 3.5104 10.1087 -3.36347 3.8638
86 1 2.19074 -0.668523 2.0648 9.31743 17.0409 8.00051
107 1 3.36508 0.832129 3.30752 -3.08723 -11.5851 -6.58067
108 1 5.10035 2.07827 1.91125 5.24873 -9.60765 -5.39092
155 1 9.22578 -5.07004 3.2079 -4.68074 -0.708378 -10.953
156 1 10.802 -3.40629 1.79721 0.387361 -1.3357 5.27109
157 1 6.24219 -1.99509 3.75868 -1.43305 2.45947 8.90092
158 1 7.85896 -0.87388 2.3071 -11.9669 1.39828 4.19677
179 1 9.43624 0.677029 3.36534 2.53288 -0.0535394 -3.7491
180 1 10.9437 1.9542 1.94376 0.338009 4.14938 -0.600585
15 1 -3.50254 -3.68244 4.88258 -0.353722 -3.73907 -15.0328
16 1 -0.470932 -0.737559 4.63934 -7.38918 -0.69338 -2.32179
17 1 -4.83037 -5.1162 6.15099 -0.404667 15.1902 6.00846
18 1 -1.9563 -1.84541 6.07656 -6.39553 -7.53538 11.1338
20 1 -0.715633 -3.43671 7.87321 5.00668 5.54472 4.55529
22 1 -3.38163 -0.740738 7.81862 17.4502 -5.14907 5.33483
39 1 -3.38821 2.20819 4.7874 0.546275 0.188874 1.02665
41 1 -4.7874 0.598542 6.23575 6.40543 3.76218 -1.84538
44 1 -0.856 2.08711 7.53828 -0.277643 -3.26628 4.35141
87 1 2.07528 -3.63188 4.86725 5.99525 -1.45994 -4.39765
88 1 4.67377 -0.508626 4.95738 -6.27272 -3.9059 -0.0124841
89 1 0.147693 -4.68129 6.06999 -1.65493 -9.3514 -8.41298
90 1 3.4718 -2.12632 6.35858 -1.60912 -5.9452 -1.36838
92 1 5.11392 -3.79011 7.56641 0.918905 1.64948 -1.24624
94 1 2.31783 -0.572997 7.75571 -1.26035 -5.03061 -1.95521
111 1 2.34903 1.9931 5.22159 -2.36237 6.70791 6.17894
113 1 0.823824 0.711599 6.27257 -3.65026 1.10415 -0.254796
116 1 4.87783 1.90947 7.81129 -8.38332 7.10013 -4.81048
159 1 7.687 -3.79179 4.52801 2.03187 -2.89329 2.1373
160 1 10.8321 -0.9547 4.72538 -8.74237 8.98305 -2.64963
161 1 6.49468 -5.09715 5.98163 -1.19343 -4.86826 -2.04122
162 1 9.07893 -2.17331 6.14249 -0.567289 2.03629 -5.1453
164 1 10.5524 -3.44343 7.83057 12.0195 6.16455 8.96492
166 1 7.60469 -0.89449 7.45801 -7.61574 -6.56238 0.345761
183 1 7.91661 2.04074 4.78781 4.03802 8.03849 11.7669
185 1 6.54996 0.60815 6.17771 5.19932 -6.29338 -6.7517
188 1 10.3832 2.08438 7.40427 -4.61605 -5.3104 6.91671
19 1 -2.24408 -4.74678 9.35595 -10.6332 6.96234 -6.79015
21 1 -5.01958 -2.03669 8.91129 4.13103 -5.09243 0.883981
23 1 -3.84106 -3.25149 10.6979 4.23704 -9.11543 3.32212
24 1 -0.717655 -0.751566 10.7822 3.55992 3.58118 -8.04242
43 1 -2.29936 0.881823 9.40988 -2.56164 -6.42138 0.958909
47 1 -3.67081 2.34952 10.6422 2.00971 12.2154 7.05659
91 1 3.31375 -4.74895 8.94436 0.540902 1.9733 -3.5298
93 1 0.804529 -1.85234 9.35135 7.99107 -1.04164 8.59468
95 1 2.2571 -3.41169 10.8845 0.585216 9.58496 9.35522
96 1 4.98024 -0.501387 10.6627 -5.45189 1.10918 -8.34009
115 1 3.73331 0.903131 9.3079 -0.00898596 -2.04735 2.7734
119 1 2.25081 2.12796 10.6035 2.92532 6.02329 -8.57438
163 1 9.27863 -4.9452 8.97153 -3.54729 -0.335781 10.3972
165 1 6.57802 -2.2411 9.16373 -8.76448 -7.01082 -3.20193
167 1 7.92955 -3.68204 10.5319 -7.53623 -14.0128 -5.47392
168 1 10.6262 -0.749884 10.3804 11.3728 -4.47404 -11.8177
187 1 8.97532 0.752507 8.87657 5.6848 -1.16228 1.24325
191 1 7.8402 2.20757 10.6911 -4.81702 -9.83683 -5.49468
26 1 -2.34952 3.49819 -4.92989 8.89524 4.72688 -6.7668
30 1 -3.42092 4.98303 -3.53759 8.01628 -10.6283 -4.27943
49 1 -5.13266 6.36826 -4.89792 -11.2578 -1.79818 6.70186
50 1 -2.11754 9.03335 -4.65829 9.31226 2.33462 2.28569
52 1 -0.38632 7.75575 -3.32944 7.46139 -2.66818 3.88211
54 1 -3.6744 10.459 -3.72102 -1.35694 -1.66512 -5.92458
98 1 3.4578 3.59406 -4.71207 -2.10245 -10.0917 -0.333788
102 1 2.24836 4.96957 -2.94143 3.71433 -4.26257 1.93606
121 1 1.02522 6.39796 -4.69548 -0.693742 2.85847 5.1759
122 1 3.46935 9.19961 -5.00099 -6.32132 -3.37502 14.4872
124 1 5.00597 7.65851 -3.2006 0.533007 -2.4259 -0.652475
126 1 2.03044 10.5039 -3.54866 -7.56941 -9.78234 -4.47896
170 1 9.14306 3.94953 -5.08677 -7.12904 4.00127 1.87344
174 1 7.7399 5.08257 -3.40543 -3.04049 2.18349 -12.3034
193 1 6.29831 6.42524 -4.96347 -15.5771 4.38883 -11.4415
194 1 9.12282 9.03665 -4.90139 -1.85253 -9.66116 2.48336
196 1 10.712 7.73087 -3.60517 3.4464 2.83124 -11.5586
198 1 7.92973 10.5199 -3.50769 -1.45195 -14.5877 -4.94784
29 1 -4.92486 3.48162 -2.16994 23.7025 13.4291 -0.992072
32 1 -0.648359 4.81202 -0.518145 5.21662 1.43583 -5.67219
34 1 -2.2358 3.33385 1.05116 10.5951 3.59673 -2.3604
51 1 -1.88114 6.52535 -1.96365 -9.02003 2.3948 2.6711
53 1 -5.05042 9.07817 -2.31879 5.70224 5.4731 -9.01678
55 1 -3.61486 7.73755 -0.791963 0.455029 3.06245 -6.11569
56 1 -0.547489 10.7545 -0.53873 6.76589 0.442165 3.14106
57 1 -5.12498 6.60766 0.743165 7.2855 -3.9461 -7.57916
58 1 -2.10876 9.29847 0.681388 1.12597 -3.53202 -11.4237
101 1 0.700306 3.23438 -1.87237 6.27151 12.5155 6.89049
104 1 5.36191 5.16949 -0.8764 -0.0316851 1.17486 8.50165
106 1 3.77149 3.53891 0.401805 2.1723 10.9395 -2.43913
123 1 3.44783 6.723 -1.84278 -2.73763 2.24148 -4.26351
125 1 0.829997 9.37981 -1.8891 -3.09568 2.44178 4.78535
127 1 1.90722 7.92463 -0.318988 0.355577 2.33854 -11.3386
128 1 4.66438 10.8449 -0.61943 10.3628 -2.01706 14.8507
129 1 0.688202 6.23001 1.09784 -4.98166 2.21451 -0.498869
130 1 3.39671 9.32747 0.866046 -9.15237 15.6205 -4.88799
173 1 6.56606 3.42879 -2.12688 -15.4409 -2.72728 -0.239226
176 1 10.8159 5.09779 -0.783707 -2.61683 -6.43424 4.76892
178 1 9.5892 3.47778 0.817532 -2.27844 -3.74949 1.90082
195 1 9.22599 6.4576 -2.20947 10.6653 1.38687 -2.34118
197 1 6.34797 9.22626 -2.04378 0.749446 -5.91619 -16.4436
199 1 7.96858 7.99146 -0.493917 -8.89944 -6.20263 -6.05984
200 1 10.685 10.479 -0.708452 -8.69994 10.5029 13.2105
201 1 6.52969 6.55818 0.777104 -0.660854 4.18972 3.87866
202 1 9.51392 9.17193 0.938283 5.7279 -8.46714 5.20535
37 1 -4.75118 3.50544 3.373 7.69376 -5.56115 -5.53001
38 1 -3.56339 4.95958 1.95491 -0.480064 6.98365 4.47703
59 1 -2.56041 6.38296 3.77901 2.47491 4.17102 -4.13068
60 1 -0.852791 7.71922 2.31243 8.02596 0.362137 4.48944
61 1 -4.71055 9.70063 3.75177 -6.98305 5.33966 0.834725
62 1 -3.22256 10.656 2.19411 4.4892 -7.60923 -2.49367
109 1 0.790398 3.43272 3.9972 5.61585 -16.9368 -2.54452
110 1 2.28515 4.44756 2.49846 0.422197 -0.831794 16.1817
131 1 3.28558 6.13377 3.89441 5.37819 -4.40217 10.3003
132 1 4.6264 7.69273 2.29318 -4.50462 -2.14235 1.59707
133 1 0.565198 9.0339 3.96059 6.42042 -2.41387 4.73277
134 1 2.0006 10.5622 2.18871 0.103427 1.93089 10.5922
181 1 6.40407 3.54979 3.66343 8.57871 -6.34502 7.35184
182 1 7.92646 4.72695 2.12978 -2.35848 -5.23343 1.17476
203 1 9.2439 6.59417 3.5615 -2.83464 6.94529 -1.56045
204 1 10.9057 7.99111 2.52101 -10.1401 -3.48545 3.32934
205 1 6.19603 9.0807 3.41382 -6.92905 0.420287 -5.24473
206 1 7.73892 10.4105 1.9863 -7.95419 1.80981 1.7671
40 1 -0.821548 5.00129 4.75675 -0.623841 1.18584 5.77567
42 1 -2.34033 3.68182 6.24047 -11.8099 -5.14547 14.9081
46 1 -3.80955 4.79073 7.82237 -13.2621 -5.37027 -5.13811
63 1 -3.72285 7.98714 5.43139 10.4787 2.84826 14.7745
64 1 -1.07078 10.6464 4.79588 -0.835969 -7.76937 7.73641
65 1 -5.11303 6.20582 6.15543 1.6131 1.77712 -1.61395
66 1 -1.92496 9.02914 6.83477 8.56977 14.276 -4.72543
68 1 -0.780315 7.83961 8.32446 -6.76059 -7.53955 1.06284
70 1 -3.69426 10.5121 7.91471 -3.34699 -4.28831 -0.812659
112 1 4.97089 5.15887 5.23293 1.58786 2.40753 2.79925
114 1 3.66352 3.50183 6.62325 7.93566 1.05766 -1.75782
118 1 1.91795 4.83039 7.76188 -5.67757 -4.38643 -10.2252
135 1 2.10586 7.69071 5.33956 0.0435099 7.01495 -0.00206482
136 1 4.75309 10.7064 4.85239 -0.224068 -1.56254 2.41334
137 1 0.278154 6.39936 6.4485 2.79998 -7.37109 9.81108
138 1 3.47543 9.4869 6.4754 10.8427 0.366878 -9.43949
140 1 4.657 8.04214 7.9704 -8.33 0.14691 5.1364
142 1 1.75963 11.2677 7.62109 1.21457 -3.27348 2.41975
184 1 10.5919 4.90811 4.51766 -3.19479 -1.24579 -6.03606
186 1 9.17125 3.62364 6.14313 6.42175 2.0586 4.50239
190 1 7.5255 4.7815 7.55488 -1.33034 -4.7701 4.13851
207 1 7.97603 8.07831 4.98039 -4.48218 4.15889 -2.43889
208 1 10.4538 10.8931 4.78605 3.32616 17.7406 -8.00714
209 1 6.23128 6.89337 6.45679 1.77986 6.66299 -1.8203
210 1 9.19482 9.28934 6.61189 6.98133 4.99111 1.94481
212 1 10.5044 7.47614 7.93878 2.42313 -4.26975 0.901675
214 1 7.66415 10.5793 7.76165 -7.11717 1.58828 -0.709361
45 1 -5.18062 3.40543 9.2785 -3.84515 -3.3013 -15.8062
48 1 -0.496511 4.80163 10.808 5.59511 13.4901 -0.691856
67 1 -2.24295 5.96165 9.39276 -14.5056 -1.39676 -5.17501
69 1 -5.18317 9.06031 9.29168 12.1188 5.47033 2.62848
71 1 -3.45494 7.6068 10.78 -2.29731 5.04912 -5.3866
72 1 -0.838213 10.9227 10.9839 0.0158523 2.71691 9.01719
117 1 0.700832 3.37878 9.11088 -0.926244 -11.3362 -7.22872
120 1 5.04141 4.79686 10.7906 20.3827 -4.03122 -5.77228
139 1 3.5424 6.43847 9.19931 4.57136 13.0342 -2.20111
141 1 0.734495 9.38685 9.34399 3.72595 -3.05063 -5.94601
143 1 2.09517 7.87106 10.5914 6.84095 4.95962 5.16795
144 1 4.31463 10.9425 10.4859 -1.93232 -11.8561 8.44688
189 1 6.21371 3.37022 9.40822 -6.44365 -9.82369 5.9108
192 1 10.4805 5.28538 10.4538 -3.9222 -11.7203 -0.849393
211 1 8.70537 6.47349 9.18203 -3.23571 -0.225978 11.279
213 1 6.19129 9.49066 9.28658 -4.78919 -10.673 2.54556
215 1 7.51009 7.98649 10.7039 4.94752 5.30249 -4.02622
216 1 10.5886 10.4757 10.5663 1.84709 -7.10547 6.32259
