ITEM: TIMESTEP
0
ITEM: NUMBER OF ATOMS
216
ITEM: BOX BOUNDS pp pp pp
-5.6735898889999996e+00 1.1347179777999999e+01
-5.6735898889999996e+00 1.1347179777999999e+01
-5.6735898889999996e+00 1.1347179777999999e+01
ITEM: ATOMS id type x y z vx vy vz
1 1 -4.96439 -4.96439 -4.96439 3.26068 -6.1176 -11.3631
2 1 -2.1276 -2.1276 -4.96439 1.72865 -2.58892 8.4868
4 1 -0.709199 -3.54599 -3.54599 -0.0308342 -1.0652 0.697538
6 1 -3.54599 -0.709199 -3.54599 -7.38659 2.21565 4.02272
25 1 -4.96439 0.709199 -4.96439 -13.5689 11.542 6.93494
28 1 -0.709199 2.1276 -3.54599 -9.12921 3.94859 10.2598
73 1 0.709199 -4.96439 -4.96439 2.71365 5.16672 -2.45701
74 1 3.54599 -2.1276 -4.96439 13.1396 -4.21347 -7.09716
76 1 4.96439 -3.54599 -3.54599 5.40337 -1.64911 9.67094
78 1 2.1276 -0.709199 -3.54599 -6.72648 -9.24492 -5.88463
97 1 0.709199 0.709199 -4.96439 -3.47611 -8.79648 -1.53049
100 1 4.96439 2.1276 -3.54599 -6.25738 -16.3343 9.28137
145 1 6.38279 -4.96439 -4.96439 -3.22602 5.31209 0.499077
146 1 9.21958 -2.1276 -4.96439 4.98922 -4.08229 11.7123
148 1 10.638 -3.54599 -3.54599 1.65788 4.3581 2.34686
150 1 7.80119 -0.709199 -3.54599 -0.825617 -15.2464 1.76067
169 1 6.38279 0.709199 -4.96439 -5.44285 7.452 5.41944
172 1 10.638 2.1276 -3.54599 0.329266 5.70566 -9.65835
3 1 -2.1276 -4.96439 -2.1276 -9.88883 10.093 3.56288
5 1 -4.96439 -2.1276 -2.1276 13.8314 -9.42688 3.56161
7 1 -3.54599 -3.54599 -0.709199 8.31603 0.434287 5.88841
8 1 -0.709199 -0.709199 -0.709199 0.878969 5.11609 7.58134
9 1 -4.96439 -4.96439 0.709199 2.69246 3.22091 -14.1507
10 1 -2.1276 -2.1276 0.709199 3.5162 13.8451 8.8671
27 1 -2.1276 0.709199 -2.1276 -16.6842 -5.43331 -1.66412
31 1 -3.54599 2.1276 -0.709199 1.59602 -2.55659 8.02703
33 1 -4.96439 0.709199 0.709199 7.28589 -11.6494 10.4775
75 1 3.54599 -4.96439 -2.1276 12.2806 -0.71198 9.26791
77 1 0.709199 -2.1276 -2.1276 5.17906 0.372091 5.09658
79 1 2.1276 -3.54599 -0.709199 -11.636 -11.5513 -4.24094
80 1 4.96439 -0.709199 -0.709199 5.27277 -2.35416 -0.522667
81 1 0.709199 -4.96439 0.709199 -3.61729 -4.19974 11.8521
82 1 3.54599 -2.1276 0.709199 -2.68297 0.680731 -8.29727
99 1 3.54599 0.709199 -2.1276 -3.38741 -4.24794 6.61704
103 1 2.1276 2.1276 -0.709199 -4.6472 5.97309 0.731213
105 1 0.709199 0.709199 0.709199 9.54668 -2.70483 0.623521
147 1 9.21958 -4.96439 -2.1276 -4.31799 2.7043 4.28429
149 1 6.38279 -2.1276 -2.1276 4.96787 2.78658 -0.866067
151 1 7.80119 -3.54599 -0.709199 -3.81095 6.35429 -6.66583
152 1 10.638 -0.709199 -0.709199 -13.1781 9.32545 8.58456
153 1 6.38279 -4.96439 0.709199 8.21472 3.55173 -7.71281
154 1 9.21958 -2.1276 0.709199 -2.61914 4.17452 -7.73376
171 1 9.21958 0.709199 -2.1276 -11.8965 0.629089 -13.8594
175 1 7.80119 2.1276 -0.709199 -3.4871 9.08285 -7.27831
177 1 6.38279 0.709199 0.709199 0.91472 -2.60163 -6.27532
11 1 -2.1276 -4.96439 3.54599 -5.83603 2.33819 3.93798
12 1 -0.709199 -3.54599 2.1276 7.68642 9.07559 6.18435
13 1 -4.96439 -2.1276 3.54599 13.4915 5.90773 -0.730617
14 1 -3.54599 -0.709199 2.1276 7.50545 -9.77486 5.41233
35 1 -2.1276 0.709199 3.54599 1.17311 -3.9741 1.4659
36 1 -0.709199 2.1276 2.1276 9.08008 -7.62184 -2.43399
83 1 3.54599 -4.96439 3.54599 4.43325 5.93075 9.86142
84 1 4.96439 -3.54599 2.1276 2.8484 4.1717 9.15182
85 1 0.709199 -2.1276 3.54599 -8.89588 3.51049 -0.562482
86 1 2.1276 -0.709199 2.1276 11.399 -11.8025 5.34115
107 1 3.54599 0.709199 3.54599 6.27557 -15.4475 -10.018
108 1 4.96439 2.1276 2.1276 7.14234 -0.318351 -3.91012
155 1 9.21958 -4.96439 3.54599 3.80347 0.117582 1.20716
156 1 10.638 -3.54599 2.1276 -0.411511 -1.08963 -3.02099
157 1 6.38279 -2.1276 3.54599 0.804988 10.4976 8.13255
158 1 7.80119 -0.709199 2.1276 3.76899 -1.87428 7.66964
179 1 9.21958 0.709199 3.54599 5.2742 2.2545 -12.5701
180 1 10.638 2.1276 2.1276 -11.3169 -4.44862 1.25828
15 1 -3.54599 -3.54599 4.96439 -2.07206 3.36856 3.3574
16 1 -0.709199 -0.709199 4.96439 0.221996 4.49253 11.9269
17 1 -4.96439 -4.96439 6.38279 1.5883 6.6563 -9.81886
18 1 -2.1276 -2.1276 6.38279 12.9012 -0.433324 0.257209
20 1 -0.709199 -3.54599 7.80119 13.0549 0.298015 2.34698
22 1 -3.54599 -0.709199 7.80119 -12.006 -5.04723 -9.11221
39 1 -3.54599 2.1276 4.96439 -1.17929 -2.21735 -8.44725
41 1 -4.96439 0.709199 6.38279 8.66784 -5.21029 3.68931
44 1 -0.709199 2.1276 7.80119 -8.48211 -0.898314 -1.28807
87 1 2.1276 -3.54599 4.96439 -0.60418 8.85627 12.0693
88 1 4.96439 -0.709199 4.96439 -0.47006 -2.06035 -4.54126
89 1 0.709199 -4.96439 6.38279 5.97517 10.1132 -2.17679
90 1 3.54599 -2.1276 6.38279 -6.94833 11.2524 13.4113
92 1 4.96439 -3.54599 7.80119 -1.87957 -12.7092 10.3525
94 1 2.1276 -0.709199 7.80119 -2.19523 1.99007 1.24216
111 1 2.1276 2.1276 4.96439 -5.94036 5.65666 18.5145
113 1 0.709199 0.709199 6.38279 -1.51275 10.7824 5.9627
116 1 4.96439 2.1276 7.80119 -9.16393 -6.56388 4.83062
159 1 7.80119 -3.54599 4.96439 -4.6372 -1.53563 -13.5447
160 1 10.638 -0.709199 4.96439 9.66074 -9.25457 0.33814
161 1 6.38279 -4.96439 6.38279 13.6021 2.29676 -9.24332
162 1 9.21958 -2.1276 6.38279 -6.59496 -6.19889 3.86009
164 1 10.638 -3.54599 7.80119 6.3223 -3.07619 -4.58142
166 1 7.80119 -0.709199 7.80119 3.07438 -4.14537 5.7737
183 1 7.80119 2.1276 4.96439 -4.78647 -9.54051 -6.78288
185 1 6.38279 0.709199 6.38279 7.82366 -7.32694 2.97195
188 1 10.638 2.1276 7.80119 0.193156 1.51893 -3.70669
19 1 -2.1276 -4.96439 9.21958 3.04817 3.70833 -2.95076
21 1 -4.96439 -2.1276 9.21958 -3.5361 16.8085 0.453813
23 1 -3.54599 -3.54599 10.638 5.06155 -1.69722 -0.0818348
24 1 -0.709199 -0.709199 10.638 -7.64691 4.03044 1.2094
43 1 -2.1276 0.709199 9.21958 3.52356 -3.95847 -14.9277
47 1 -3.54599 2.1276 10.638 -1.48798 -0.822016 -9.5745
91 1 3.54599 -4.96439 9.21958 -3.29813 6.27346 -2.07561
93 1 0.709199 -2.1276 9.21958 -4.03898 -6.87548 11.3271
95 1 2.1276 -3.54599 10.638 -7.98927 2.72419 0.0986794
96 1 4.96439 -0.709199 10.638 -4.67197 -7.09256 -0.952341
115 1 3.54599 0.709199 9.21958 -8.78267 -1.23465 -5.70586
119 1 2.1276 2.1276 10.638 -0.2805 5.72818 1.82664
163 1 9.21958 -4.96439 9.21958 -5.35633 3.64013 -1.28173
165 1 6.38279 -2.1276 9.21958 0.0875122 -0.993057 -16.6837
167 1 7.80119 -3.54599 10.638 8.04141 -21.5258 -2.8027
168 1 10.638 -0.709199 10.638 -2.59869 -3.19798 5.06625
187 1 9.21958 0.709199 9.21958 -3.65352 -9.79459 -1.88897
191 1 7.80119 2.1276 10.638 -5.8381 -6.82848 6.61209
26 1 -2.1276 3.54599 -4.96439 0.826478 5.85622 -0.104163
30 1 -3.54599 4.96439 -3.54599 -7.71881 -0.0508614 -8.14316
49 1 -4.96439 6.38279 -4.96439 8.84338 -2.29903 -5.36292
50 1 -2.1276 9.21958 -4.96439 1.08728 6.05563 1.85361
52 1 -0.709199 7.80119 -3.54599 -5.8054 -4.80591 0.170012
54 1 -3.54599 10.638 -3.54599 8.98416 2.33376 1.20986
98 1 3.54599 3.54599 -4.96439 -5.24637 -4.43652 -9.60988
102 1 2.1276 4.96439 -3.54599 3.19656 11.4963 13.8055
121 1 0.709199 6.38279 -4.96439 1.21761 6.10983 17.0337
122 1 3.54599 9.21958 -4.96439 0.733386 -6.32901 -2.39741
124 1 4.96439 7.80119 -3.54599 12.736 12.3961 5.48889
126 1 2.1276 10.638 -3.54599 -7.76722 -5.00506 9.37604
170 1 9.21958 3.54599 -4.96439 2.31948 1.89716 15.6623
174 1 7.80119 4.96439 -3.54599 0.861167 -4.06775 8.40049
193 1 6.38279 6.38279 -4.96439 -2.7626 -1.31373 -8.71567
194 1 9.21958 9.21958 -4.96439 -1.60509 -0.292671 -0.788548
196 1 10.638 7.80119 -3.54599 -7.62098 -3.3187 -4.52011
198 1 7.80119 10.638 -3.54599 2.20382 18.0686 -6.50501
29 1 -4.96439 3.54599 -2.1276 -0.0602532 5.17073 -2.65582
32 1 -0.709199 4.96439 -0.709199 1.26212 -0.596875 -2.47917
34 1 -2.1276 3.54599 0.709199 -5.79412 -10.03 -6.17229
51 1 -2.1276 6.38279 -2.1276 7.54604 -10.445 -3.79457
53 1 -4.96439 9.21958 -2.1276 2.98672 8.24839 -4.16207
55 1 -3.54599 7.80119 -0.709199 2.60189 -1.61947 -3.52399
56 1 -0.709199 10.638 -0.709199 0.484271 2.04408 -5.61278
57 1 -4.96439 6.38279 0.709199 -4.03537 -7.14821 -3.31471
58 1 -2.1276 9.21958 0.709199 4.26758 -1.14774 1.34546
101 1 0.709199 3.54599 -2.1276 -0.918903 -3.09942 4.95303
104 1 4.96439 4.96439 -0.709199 1.12189 8.43365 5.03881
106 1 3.54599 3.54599 0.709199 -1.18133 -5.81145 -18.5045
123 1 3.54599 6.38279 -2.1276 -1.96835 2.92873 -7.03632
125 1 0.709199 9.21958 -2.1276 6.24308 6.55275 -6.09934
127 1 2.1276 7.80119 -0.709199 -19.9145 5.75764 -2.33682
128 1 4.96439 10.638 -0.709199 -14.1187 6.86115 0.173861
129 1 0.709199 6.38279 0.709199 2.28513 6.99547 -15.364
130 1 3.54599 9.21958 0.709199 -2.24505 0.539695 -7.11088
173 1 6.38279 3.54599 -2.1276 1.19875 -5.46583 -1.17533
176 1 10.638 4.96439 -0.709199 7.5687 5.2286 -0.626157
178 1 9.21958 3.54599 0.709199 2.80026 10.04 3.57212
195 1 9.21958 6.38279 -2.1276 -6.05455 7.47196 -6.49646
197 1 6.38279 9.21958 -2.1276 -14.0759 -6.30556 7.55227
199 1 7.80119 7.80119 -0.709199 5.04391 -8.70402 -10.2696
200 1 10.638 10.638 -0.709199 -3.51926 7.58785 3.36536
201 1 6.38279 6.38279 0.709199 -1.7423 -7.09779 4.08652
202 1 9.21958 9.21958 0.709199 11.0671 -2.1447 -10.5103
37 1 -4.96439 3.54599 3.54599 4.73765 6.26041 2.88634
38 1 -3.54599 4.96439 2.1276 -0.26618 -0.648829 -3.27142
59 1 -2.1276 6.38279 3.54599 -8.36579 4.14217 -4.94446
60 1 -0.709199 7.80119 2.1276 9.79435 1.47307 11.3166
61 1 -4.96439 9.21958 3.54599 -9.01161 -2.95988 -3.54732
62 1 -3.54599 10.638 2.1276 17.4983 -8.8428 -19.9494
109 1 0.709199 3.54599 3.54599 -0.915021 3.69898 3.93017
110 1 2.1276 4.96439 2.1276 4.82858 -8.82357 -4.76645
131 1 3.54599 6.38279 3.54599 -7.63661 -4.39351 3.09505
132 1 4.96439 7.80119 2.1276 -1.12292 -10.5736 -6.93502
133 1 0.709199 9.21958 3.54599 -2.70617 -0.390762 3.57055
134 1 2.1276 10.638 2.1276 -0.15309 10.571 -3.95127
181 1 6.38279 3.54599 3.54599 -5.52452 3.42757 10.8136
182 1 7.80119 4.96439 2.1276 1.57562 5.55382 -4.75395
203 1 9.21958 6.38279 3.54599 -3.50438 -1.45177 0.125676
204 1 10.638 7.80119 2.1276 -2.90876 0.350527 8.65999
205 1 6.38279 9.21958 3.54599 -0.45533 11.6879 -6.70253
206 1 7.80119 10.638 2.1276 -2.48397 -8.00322 3.34496
40 1 -0.709199 4.96439 4.96439 -3.58414 -0.374813 11.4379
42 1 -2.1276 3.54599 6.38279 1.69017 0.399924 4.07056
46 1 -3.54599 4.96439 7.80119 15.2248 -2.77713 5.5582
63 1 -3.54599 7.80119 4.96439 0.68405 3.50381 -3.13579
64 1 -0.709199 10.638 4.96439 2.34493 -4.77603 10.7232
65 1 -4.96439 6.38279 6.38279 11.1 -2.52068 -1.38488
66 1 -2.1276 9.21958 6.38279 3.62626 8.90504 4.05958
68 1 -0.709199 7.80119 7.80119 -1.15906 10.9028 -3.80815
70 1 -3.54599 10.638 7.80119 -2.14983 13.4994 -9.28437
112 1 4.96439 4.96439 4.96439 -3.63263 0.139188 4.91646
114 1 3.54599 3.54599 6.38279 5.98554 -4.08233 -3.42616
118 1 2.1276 4.96439 7.80119 6.19961 0.252931 1.47214
135 1 2.1276 7.80119 4.96439 -3.48208 -8.47947 -3.72284
136 1 4.96439 10.638 4.96439 -5.34076 9.23932 5.08102
137 1 0.709199 6.38279 6.38279 -5.35057 12.7171 -5.95388
138 1 3.54599 9.21958 6.38279 1.74977 0.0278494 4.55433
140 1 4.96439 7.80119 7.80119 16.3622 -6.7099 -1.49578
142 1 2.1276 10.638 7.80119 -5.19854 10.2257 2.35159
184 1 10.638 4.96439 4.96439 2.4018 6.8937 5.66393
186 1 9.21958 3.54599 6.38279 3.9248 -3.65391 0.542829
190 1 7.80119 4.96439 7.80119 0.874265 -1.38791 7.6475
207 1 7.80119 7.80119 4.96439 -20.4417 5.37617 -8.62094
208 1 10.638 10.638 4.96439 -0.367652 6.97631 -6.35294
209 1 6.38279 6.38279 6.38279 -2.9811 5.17225 2.32395
210 1 9.21958 9.21958 6.38279 3.5346 -10.311 -8.24311
212 1 10.638 7.80119 7.80119 -3.97801 -12.0072 -11.6002
214 1 7.80119 10.638 7.80119 -0.89517 -6.7362 10.8273
45 1 -4.96439 3.54599 9.21958 -3.52471 -3.80904 3.02764
48 1 -0.709199 4.96439 10.638 2.36606 -3.9355 3.35308
67 1 -2.1276 6.38279 9.21958 -3.88511 -1.14525 6.6617
69 1 -4.96439 9.21958 9.21958 -2.19787 -13.1843 2.39505
71 1 -3.54599 7.80119 10.638 -6.58011 12.666 -3.21166
72 1 -0.709199 10.638 10.638 -1.62843 -14.6738 -6.34639
117 1 0.709199 3.54599 9.21958 -5.1382 0.177127 -7.4468
120 1 4.96439 4.96439 10.638 7.22984 9.56994 -7.54212
139 1 3.54599 6.38279 9.21958 -5.6396 -1.34802 -6.05574
141 1 0.709199 9.21958 9.21958 6.61207 -7.92843 -1.02647
143 1 2.1276 7.80119 10.638 0.0446792 4.03466 4.83269
144 1 4.96439 10.638 10.638 13.0924 -8.87581 1.03221
189 1 6.38279 3.54599 9.21958 2.16258 -3.2435 -0.0234999
192 1 10.638 4.96439 10.638 -5.69692 0.530296 -3.89835
211 1 9.21958 6.38279 9.21958 -7.21326 -2.62429 2.24116
213 1 6.38279 9.21958 9.21958 8.9832 0.274856 -3.41627
215 1 7.80119 7.80119 10.638 6.32493 8.81727 0.404736
216 1 10.638 10.638 10.638 -4.37927 -8.01127 1.63732
